<?xml version="1.0" encoding="UTF-8"?>

<!-- generated on 2023-02-10 18:21:11 by Eclipse SUMO sumo Version 1.15.0
<configuration xmlns:xsi="http://www.w3.org/2001/XMLSchema-instance" xsi:noNamespaceSchemaLocation="http://sumo.dlr.de/xsd/sumoConfiguration.xsd">

    <input>
        <net-file value="/Users/ibnefarabishihab/Documents/GitHub/RL-in-signal-syncronization/sumo_files/static/foothill.net.xml"/>
        <route-files value="/Users/ibnefarabishihab/Documents/GitHub/RL-in-signal-syncronization/sumo_files/dynamic/routes.sample.7am.xml,/Users/ibnefarabishihab/Documents/GitHub/RL-in-signal-syncronization/sumo_files/ dynamic/ped.route.7am.xml"/>
        <additional-files value="/Users/ibnefarabishihab/Documents/GitHub/RL-in-signal-syncronization/sumo_files/static/osm.poly.xml,/Users/ibnefarabishihab/Documents/GitHub/RL-in-signal-syncronization/sumo_files/ static/det.gapout.add.xml,/Users/ibnefarabishihab/Documents/GitHub/RL-in-signal-syncronization/sumo_files/ dynamic/ped.tls.7am.xml"/>
    </input>

    <processing>
        <ignore-route-errors value="true"/>
    </processing>

    <routing>
        <device.rerouting.adaptation-steps value="180"/>
    </routing>

    <report>
        <verbose value="true"/>
        <no-warnings value="true"/>
        <duration-log.statistics value="true"/>
        <no-step-log value="true"/>
    </report>

    <random_number>
        <seed value="1337"/>
    </random_number>

    <gui_only>
        <gui-settings-file value="/Users/ibnefarabishihab/Documents/GitHub/RL-in-signal-syncronization/sumo_files/static/osm.view.xml"/>
        <start value="true"/>
    </gui_only>

</configuration>
-->

<detector xmlns:xsi="http://www.w3.org/2001/XMLSchema-instance" xsi:noNamespaceSchemaLocation="http://sumo.dlr.de/xsd/det_e1_file.xsd">
</detector>
